 Entering Gaussian System, Link 0=g16
 Initial command:
 /software/gaussian-16RevA.03-el8-x86_64/g16/l1.exe "/scratch/midway3/ndohrmann/3917278/Gau-322248.inp" -scrdir="/scratch/midway3/ndohrmann/3917278/"
 Default is to use a total of  15 processors:
                               15 via shared-memory
                                1 via Linda
 Entering Link 1 = /software/gaussian-16RevA.03-el8-x86_64/g16/l1.exe PID=    322249.
  
 Copyright (c) 1988,1990,1992,1993,1995,1998,2003,2009,2016,
            Gaussian, Inc.  All Rights Reserved.
  
 This is part of the Gaussian(R) 16 program.  It is based on
 the Gaussian(R) 09 system (copyright 2009, Gaussian, Inc.),
 the Gaussian(R) 03 system (copyright 2003, Gaussian, Inc.),
 the Gaussian(R) 98 system (copyright 1998, Gaussian, Inc.),
 the Gaussian(R) 94 system (copyright 1995, Gaussian, Inc.),
 the Gaussian 92(TM) system (copyright 1992, Gaussian, Inc.),
 the Gaussian 90(TM) system (copyright 1990, Gaussian, Inc.),
 the Gaussian 88(TM) system (copyright 1988, Gaussian, Inc.),
 the Gaussian 86(TM) system (copyright 1986, Carnegie Mellon
 University), and the Gaussian 82(TM) system (copyright 1983,
 Carnegie Mellon University). Gaussian is a federally registered
 trademark of Gaussian, Inc.
  
 This software contains proprietary and confidential information,
 including trade secrets, belonging to Gaussian, Inc.
  
 This software is provided under written license and may be
 used, copied, transmitted, or stored only in accord with that
 written license.
  
 The following legend is applicable only to US Government
 contracts under FAR:
  
                    RESTRICTED RIGHTS LEGEND
  
 Use, reproduction and disclosure by the US Government is
 subject to restrictions as set forth in subparagraphs (a)
 and (c) of the Commercial Computer Software - Restricted
 Rights clause in FAR 52.227-19.
  
 Gaussian, Inc.
 340 Quinnipiac St., Bldg. 40, Wallingford CT 06492
  
  
 ---------------------------------------------------------------
 Warning -- This program may not be used in any manner that
 competes with the business of Gaussian, Inc. or will provide
 assistance to any competitor of Gaussian, Inc.  The licensee
 of this program is prohibited from giving any competitor of
 Gaussian, Inc. access to this program.  By using this program,
 the user acknowledges that Gaussian, Inc. is engaged in the
 business of creating and licensing software in the field of
 computational chemistry and represents and warrants to the
 licensee that it is not a competitor of Gaussian, Inc. and that
 it will not use this program in any manner prohibited above.
 ---------------------------------------------------------------
  

 Cite this work as:
 Gaussian 16, Revision A.03,
 M. J. Frisch, G. W. Trucks, H. B. Schlegel, G. E. Scuseria, 
 M. A. Robb, J. R. Cheeseman, G. Scalmani, V. Barone, 
 G. A. Petersson, H. Nakatsuji, X. Li, M. Caricato, A. V. Marenich, 
 J. Bloino, B. G. Janesko, R. Gomperts, B. Mennucci, H. P. Hratchian, 
 J. V. Ortiz, A. F. Izmaylov, J. L. Sonnenberg, D. Williams-Young, 
 F. Ding, F. Lipparini, F. Egidi, J. Goings, B. Peng, A. Petrone, 
 T. Henderson, D. Ranasinghe, V. G. Zakrzewski, J. Gao, N. Rega, 
 G. Zheng, W. Liang, M. Hada, M. Ehara, K. Toyota, R. Fukuda, 
 J. Hasegawa, M. Ishida, T. Nakajima, Y. Honda, O. Kitao, H. Nakai, 
 T. Vreven, K. Throssell, J. A. Montgomery, Jr., J. E. Peralta, 
 F. Ogliaro, M. J. Bearpark, J. J. Heyd, E. N. Brothers, K. N. Kudin, 
 V. N. Staroverov, T. A. Keith, R. Kobayashi, J. Normand, 
 K. Raghavachari, A. P. Rendell, J. C. Burant, S. S. Iyengar, 
 J. Tomasi, M. Cossi, J. M. Millam, M. Klene, C. Adamo, R. Cammi, 
 J. W. Ochterski, R. L. Martin, K. Morokuma, O. Farkas, 
 J. B. Foresman, and D. J. Fox, Gaussian, Inc., Wallingford CT, 2016.
 
 ******************************************
 Gaussian 16:  ES64L-G16RevA.03 25-Dec-2016
                 3-May-2022 
 ******************************************
 %chk=methane_in.chk
 -----------------------
 #n CCSD/aug-cc-pVTZ Opt
 -----------------------
 1/18=20,19=15,38=1/1,3;
 2/9=110,12=2,17=6,18=5,40=1/2;
 3/5=16,6=1,7=10,11=9,25=1,30=1,71=1/1,2,3;
 4//1;
 5/5=2,38=5/2;
 8/6=4,9=120000,10=1/1,4;
 9/5=7,15=1/13;
 11/28=-8,29=200,42=3/11;
 10/5=6/2;
 6/7=2,8=2,9=2,10=2/1;
 7/12=7/1,2,3,16;
 1/18=20,19=15/3(2);
 2/9=110/2;
 99//99;
 2/9=110/2;
 3/5=16,6=1,7=10,11=9,25=1,30=1,71=1/1,2,3;
 4/5=5,16=3,69=1/1;
 5/5=2,38=5/2;
 8/6=4,9=120000,10=1/1,4;
 9/5=7,15=1/13;
 11/28=-8,29=200,42=3/11;
 10/5=6/2;
 7/12=7/1,2,3,16;
 1/18=20,19=15/3(-9);
 2/9=110/2;
 6/7=2,8=2,9=2,10=2/1;
 99//99;
 -----
 Title
 -----
 Symbolic Z-matrix:
 Charge =  0 Multiplicity = 1
 C                    -0.34225  -0.18347  -0.72198 
 H                     0.74995  -0.18347  -0.72198 
 H                    -0.70632  -0.58644  -1.66959 
 H                    -0.70632   0.83867  -0.59716 
 H                    -0.70632  -0.80264   0.10081 
 

 GradGradGradGradGradGradGradGradGradGradGradGradGradGradGradGradGradGrad
 Berny optimization.
 Initialization pass.
                           ----------------------------
                           !    Initial Parameters    !
                           ! (Angstroms and Degrees)  !
 --------------------------                            --------------------------
 ! Name  Definition              Value          Derivative Info.                !
 --------------------------------------------------------------------------------
 ! R1    R(1,2)                  1.0922         estimate D2E/DX2                !
 ! R2    R(1,3)                  1.0922         estimate D2E/DX2                !
 ! R3    R(1,4)                  1.0922         estimate D2E/DX2                !
 ! R4    R(1,5)                  1.0922         estimate D2E/DX2                !
 ! A1    A(2,1,3)              109.4714         estimate D2E/DX2                !
 ! A2    A(2,1,4)              109.4714         estimate D2E/DX2                !
 ! A3    A(2,1,5)              109.4714         estimate D2E/DX2                !
 ! A4    A(3,1,4)              109.4709         estimate D2E/DX2                !
 ! A5    A(3,1,5)              109.4711         estimate D2E/DX2                !
 ! A6    A(4,1,5)              109.4711         estimate D2E/DX2                !
 ! D1    D(2,1,4,3)            120.0002         estimate D2E/DX2                !
 ! D2    D(2,1,5,3)           -120.0003         estimate D2E/DX2                !
 ! D3    D(2,1,5,4)            120.0003         estimate D2E/DX2                !
 ! D4    D(3,1,5,4)           -119.9994         estimate D2E/DX2                !
 --------------------------------------------------------------------------------
 Trust Radius=3.00D-01 FncErr=1.00D-07 GrdErr=1.00D-07 EigMax=2.50D+02 EigMin=1.00D-04
 Number of steps in this run=     24 maximum allowed number of steps=    100.
 GradGradGradGradGradGradGradGradGradGradGradGradGradGradGradGradGradGrad

                          Input orientation:                          
 ---------------------------------------------------------------------
 Center     Atomic      Atomic             Coordinates (Angstroms)
 Number     Number       Type             X           Y           Z
 ---------------------------------------------------------------------
      1          6           0       -0.342250   -0.183470   -0.721980
      2          1           0        0.749950   -0.183470   -0.721980
      3          1           0       -0.706320   -0.586440   -1.669590
      4          1           0       -0.706320    0.838670   -0.597160
      5          1           0       -0.706320   -0.802640    0.100810
 ---------------------------------------------------------------------
                    Distance matrix (angstroms):
                    1          2          3          4          5
     1  C    0.000000
     2  H    1.092200   0.000000
     3  H    1.092198   1.783556   0.000000
     4  H    1.092198   1.783556   1.783548   0.000000
     5  H    1.092200   1.783557   1.783552   1.783553   0.000000
 Stoichiometry    CH4
 Framework group  C1[X(CH4)]
 Deg. of freedom     9
 Full point group                 C1      NOp   1
 Largest Abelian subgroup         C1      NOp   1
 Largest concise Abelian subgroup C1      NOp   1
                         Standard orientation:                         
 ---------------------------------------------------------------------
 Center     Atomic      Atomic             Coordinates (Angstroms)
 Number     Number       Type             X           Y           Z
 ---------------------------------------------------------------------
      1          6           0        0.000001    0.000000    0.000000
      2          1           0        1.092201    0.000000    0.000000
      3          1           0       -0.364069   -0.461822    0.920364
      4          1           0       -0.364069   -0.566151   -0.860130
      5          1           0       -0.364069    1.027972   -0.060234
 ---------------------------------------------------------------------
 Rotational constants (GHZ):         157.6380052         157.6375399         157.6370408
 Standard basis: Aug-CC-pVTZ (5D, 7F)
 There are   155 symmetry adapted cartesian basis functions of A   symmetry.
 There are   138 symmetry adapted basis functions of A   symmetry.
   138 basis functions,   180 primitive gaussians,   155 cartesian basis functions
     5 alpha electrons        5 beta electrons
       nuclear repulsion energy        13.4083364225 Hartrees.
 NAtoms=    5 NActive=    5 NUniq=    5 SFac= 1.00D+00 NAtFMM=   60 NAOKFM=F Big=F
 Integral buffers will be    131072 words long.
 Raffenetti 1 integral format.
 Two-electron integral symmetry is turned on.
 One-electron integrals computed using PRISM.
 NBasis=   138 RedAO= T EigKep=  8.39D-05  NBF=   138
 NBsUse=   138 1.00D-06 EigRej= -1.00D+00 NBFU=   138
 ExpMin= 2.53D-02 ExpMax= 8.24D+03 ExpMxC= 2.81D+02 IAcc=3 IRadAn=         5 AccDes= 0.00D+00
 Harris functional with IExCor=  205 and IRadAn=       5 diagonalized for initial guess.
 HarFok:  IExCor=  205 AccDes= 0.00D+00 IRadAn=         5 IDoV= 1 UseB2=F ITyADJ=14
 ICtDFT=  3500011 ScaDFX=  1.000000  1.000000  1.000000  1.000000
 FoFCou: FMM=F IPFlag=           0 FMFlag=      100000 FMFlg1=           0
         NFxFlg=           0 DoJE=T BraDBF=F KetDBF=T FulRan=T
         wScrn=  0.000000 ICntrl=       500 IOpCl=  0 I1Cent=   200000004 NGrid=           0
         NMat0=    1 NMatS0=      1 NMatT0=    0 NMatD0=    1 NMtDS0=    0 NMtDT0=    0
 Petite list used in FoFCou.
 Keep R1 ints in memory in canonical form, NReq=51904770.
 Requested convergence on RMS density matrix=1.00D-08 within 128 cycles.
 Requested convergence on MAX density matrix=1.00D-06.
 Requested convergence on             energy=1.00D-06.
 No special actions if energy rises.
 SCF Done:  E(RHF) =  -40.2134314316     A.U. after    8 cycles
            NFock=  8  Conv=0.91D-08     -V/T= 2.0019
 ExpMin= 2.53D-02 ExpMax= 8.24D+03 ExpMxC= 2.81D+02 IAcc=3 IRadAn=         5 AccDes= 0.00D+00
 HarFok:  IExCor=  205 AccDes= 0.00D+00 IRadAn=         5 IDoV=-2 UseB2=F ITyADJ=14
 ICtDFT= 12500011 ScaDFX=  1.000000  1.000000  1.000000  1.000000
 Range of M.O.s used for correlation:     2   138
 NBasis=   138 NAE=     5 NBE=     5 NFC=     1 NFV=     0
 NROrb=    137 NOA=     4 NOB=     4 NVA=   133 NVB=   133

 **** Warning!!: The largest alpha MO coefficient is  0.57611639D+02

 Semi-Direct transformation.
 ModeAB=           2 MOrb=             4 LenV=    5099633598
 LASXX=      5008801 LTotXX=     5008801 LenRXX=     5008801
 LTotAB=     5118206 MaxLAS=     6625320 LenRXY=     6625320
 NonZer=    10017602 LenScr=    15728540 LnRSAI=           0
 LnScr1=           0 LExtra=           0 Total=     27362661
 MaxDsk=          -1 SrtSym=           F ITran=            4
 JobTyp=0 Pass  1:  I=   1 to   4.
 (rs|ai) integrals will be sorted in core.
 SymMOI:  orbitals are not symmetric.
 Spin components of T(2) and E(2):
     alpha-alpha T2 =       0.6199400717D-02 E2=     -0.1830408438D-01
     alpha-beta  T2 =       0.4961749481D-01 E2=     -0.1643276066D+00
     beta-beta   T2 =       0.6199400717D-02 E2=     -0.1830408438D-01
 ANorm=    0.1030541749D+01
 E2 =    -0.2009357754D+00 EUMP2 =    -0.40414367206978D+02
 Keep R2 and R3 ints in memory in canonical form, NReq=97907458.
 CIDS: In Core Option IDoMem=           1.
 Iterations=  50 Convergence= 0.100D-07
 Produce multiple copies of IABC intergrals
 Iteration Nr.   1
 **********************
 DD1Dir will call FoFMem   1 times, MxPair=        20
 NAB=    10 NAA=     0 NBB=     0.
 MP4(R+Q)=  0.40629422D-02
 E3=       -0.18125648D-01        EUMP3=      -0.40432492855D+02
 E4(DQ)=   -0.84638949D-03        UMP4(DQ)=   -0.40433339245D+02
 E4(SDQ)=  -0.18327304D-02        UMP4(SDQ)=  -0.40434325586D+02
 DE(Corr)= -0.21491708     E(Corr)=     -40.428348513    
 NORM(A)=   0.10367223D+01
 Iteration Nr.   2
 **********************
 DD1Dir will call FoFMem   1 times, MxPair=        20
 NAB=    10 NAA=     0 NBB=     0.
 DE(Corr)= -0.21969333     E(CORR)=     -40.433124757     Delta=-4.78D-03
 NORM(A)=   0.10389788D+01
 Iteration Nr.   3
 **********************
 DD1Dir will call FoFMem   1 times, MxPair=        20
 NAB=    10 NAA=     0 NBB=     0.
 DE(Corr)= -0.22060469     E(CORR)=     -40.434036119     Delta=-9.11D-04
 NORM(A)=   0.10393581D+01
 Iteration Nr.   4
 **********************
 DD1Dir will call FoFMem   1 times, MxPair=        20
 NAB=    10 NAA=     0 NBB=     0.
 DE(Corr)= -0.22088793     E(CORR)=     -40.434319358     Delta=-2.83D-04
 NORM(A)=   0.10394174D+01
 Iteration Nr.   5
 **********************
 DD1Dir will call FoFMem   1 times, MxPair=        20
 NAB=    10 NAA=     0 NBB=     0.
 DE(Corr)= -0.22090741     E(CORR)=     -40.434338841     Delta=-1.95D-05
 NORM(A)=   0.10394199D+01
 Iteration Nr.   6
 **********************
 DD1Dir will call FoFMem   1 times, MxPair=        20
 NAB=    10 NAA=     0 NBB=     0.
 DE(Corr)= -0.22090814     E(CORR)=     -40.434339574     Delta=-7.34D-07
 NORM(A)=   0.10394191D+01
 Iteration Nr.   7
 **********************
 DD1Dir will call FoFMem   1 times, MxPair=        20
 NAB=    10 NAA=     0 NBB=     0.
 DE(Corr)= -0.22090801     E(CORR)=     -40.434339440     Delta= 1.34D-07
 NORM(A)=   0.10394191D+01
 Iteration Nr.   8
 **********************
 DD1Dir will call FoFMem   1 times, MxPair=        20
 NAB=    10 NAA=     0 NBB=     0.
 DE(Corr)= -0.22090795     E(CORR)=     -40.434339378     Delta= 6.21D-08
 NORM(A)=   0.10394192D+01
 Iteration Nr.   9
 **********************
 DD1Dir will call FoFMem   1 times, MxPair=        20
 NAB=    10 NAA=     0 NBB=     0.
 DE(Corr)= -0.22090803     E(CORR)=     -40.434339457     Delta=-7.92D-08
 NORM(A)=   0.10394192D+01
 Iteration Nr.  10
 **********************
 DD1Dir will call FoFMem   1 times, MxPair=        20
 NAB=    10 NAA=     0 NBB=     0.
 DE(Corr)= -0.22090804     E(CORR)=     -40.434339474     Delta=-1.66D-08
 NORM(A)=   0.10394193D+01
 Iteration Nr.  11
 **********************
 DD1Dir will call FoFMem   1 times, MxPair=        20
 NAB=    10 NAA=     0 NBB=     0.
 DE(Corr)= -0.22090805     E(CORR)=     -40.434339484     Delta=-1.04D-08
 NORM(A)=   0.10394193D+01
 Iteration Nr.  12
 **********************
 DD1Dir will call FoFMem   1 times, MxPair=        20
 NAB=    10 NAA=     0 NBB=     0.
 DE(Corr)= -0.22090806     E(CORR)=     -40.434339487     Delta=-3.18D-09
 NORM(A)=   0.10394193D+01
 Wavefunction amplitudes converged. E(Corr)=     -40.434339487    
 Largest amplitude= 1.85D-02

 Z-amplitude iterations

 Iteration Nr.   1
 **********************
 DD1Dir will call FoFMem   1 times, MxPair=        20
 NAB=    10 NAA=     0 NBB=     0.
 DE(Z)= -0.21546935     E(Z)=     -40.428900780     Delta= 5.44D-03
 NORM(A)=   0.10394191D+01
 Iteration Nr.   2
 **********************
 DD1Dir will call FoFMem   1 times, MxPair=        20
 NAB=    10 NAA=     0 NBB=     0.
 DE(Z)= -0.21546930     E(Z)=     -40.428900727     Delta= 5.27D-08
 NORM(A)=   0.10394197D+01
 Iteration Nr.   3
 **********************
 DD1Dir will call FoFMem   1 times, MxPair=        20
 NAB=    10 NAA=     0 NBB=     0.
 DE(Z)= -0.21546948     E(Z)=     -40.428900913     Delta=-1.85D-07
 NORM(A)=   0.10394193D+01
 Iteration Nr.   4
 **********************
 DD1Dir will call FoFMem   1 times, MxPair=        20
 NAB=    10 NAA=     0 NBB=     0.
 DE(Z)= -0.21546935     E(Z)=     -40.428900779     Delta= 1.34D-07
 NORM(A)=   0.10394193D+01
 Iteration Nr.   5
 **********************
 DD1Dir will call FoFMem   1 times, MxPair=        20
 NAB=    10 NAA=     0 NBB=     0.
 DE(Z)= -0.21546936     E(Z)=     -40.428900792     Delta=-1.30D-08
 NORM(A)=   0.10370795D+01
 Iteration Nr.   6
 **********************
 DD1Dir will call FoFMem   1 times, MxPair=        20
 NAB=    10 NAA=     0 NBB=     0.
 DE(Z)= -0.21471952     E(Z)=     -40.428150953     Delta= 7.50D-04
 NORM(A)=   0.10370799D+01
 Iteration Nr.   7
 **********************
 DD1Dir will call FoFMem   1 times, MxPair=        20
 NAB=    10 NAA=     0 NBB=     0.
 DE(Z)= -0.21470899     E(Z)=     -40.428140421     Delta= 1.05D-05
 NORM(A)=   0.10370782D+01
 Iteration Nr.   8
 **********************
 DD1Dir will call FoFMem   1 times, MxPair=        20
 NAB=    10 NAA=     0 NBB=     0.
 DE(Z)= -0.21471105     E(Z)=     -40.428142484     Delta=-2.06D-06
 NORM(A)=   0.10370765D+01
 Iteration Nr.   9
 **********************
 DD1Dir will call FoFMem   1 times, MxPair=        20
 NAB=    10 NAA=     0 NBB=     0.
 DE(Z)= -0.21471064     E(Z)=     -40.428142067     Delta= 4.17D-07
 NORM(A)=   0.10370764D+01
 Iteration Nr.  10
 **********************
 DD1Dir will call FoFMem   1 times, MxPair=        20
 NAB=    10 NAA=     0 NBB=     0.
 DE(Z)= -0.21471062     E(Z)=     -40.428142051     Delta= 1.63D-08
 NORM(A)=   0.10370764D+01
 Iteration Nr.  11
 **********************
 DD1Dir will call FoFMem   1 times, MxPair=        20
 NAB=    10 NAA=     0 NBB=     0.
 DE(Z)= -0.21471064     E(Z)=     -40.428142071     Delta=-2.01D-08
 NORM(A)=   0.10370764D+01
 Iteration Nr.  12
 **********************
 DD1Dir will call FoFMem   1 times, MxPair=        20
 NAB=    10 NAA=     0 NBB=     0.
 DE(Z)= -0.21471064     E(Z)=     -40.428142071     Delta=-6.78D-10
 NORM(A)=   0.10370764D+01
 Z-amplitudes converged.
 Discarding MO integrals.
          IDoAtm=11111
          Differentiating once with respect to electric field.
                with respect to dipole field.
          Differentiating once with respect to nuclear coordinates.
 Keep R1 ints in memory in canonical form, NReq=51905767.
          There are     1 degrees of freedom in the 1st order CPHF.  IDoFFX=0 NUNeed=     1.
 LinEq1:  Iter=  0 NonCon=     1 RMS=2.12D-03 Max=1.37D-02 NDo=     1
 AX will form     1 AO Fock derivatives at one time.
 LinEq1:  Iter=  1 NonCon=     1 RMS=7.83D-04 Max=6.33D-03 NDo=     1
 LinEq1:  Iter=  2 NonCon=     1 RMS=1.10D-04 Max=7.11D-04 NDo=     1
 LinEq1:  Iter=  3 NonCon=     1 RMS=7.20D-06 Max=5.38D-05 NDo=     1
 LinEq1:  Iter=  4 NonCon=     1 RMS=5.16D-07 Max=3.57D-06 NDo=     1
 LinEq1:  Iter=  5 NonCon=     1 RMS=3.52D-08 Max=2.17D-07 NDo=     1
 LinEq1:  Iter=  6 NonCon=     1 RMS=2.28D-09 Max=1.71D-08 NDo=     1
 LinEq1:  Iter=  7 NonCon=     1 RMS=1.89D-10 Max=1.95D-09 NDo=     1
 LinEq1:  Iter=  8 NonCon=     0 RMS=1.17D-11 Max=1.14D-10 NDo=     1
 Linear equations converged to 1.000D-10 1.000D-09 after     8 iterations.
 End of Minotr F.D. properties file   721 does not exist.
 End of Minotr F.D. properties file   722 does not exist.
 End of Minotr F.D. properties file   788 does not exist.

 **********************************************************************

            Population analysis using the SCF density.

 **********************************************************************

 Orbital symmetries:
       Occupied  (A) (A) (A) (A) (A)
       Virtual   (A) (A) (A) (A) (A) (A) (A) (A) (A) (A) (A) (A)
                 (A) (A) (A) (A) (A) (A) (A) (A) (A) (A) (A) (A)
                 (A) (A) (A) (A) (A) (A) (A) (A) (A) (A) (A) (A)
                 (A) (A) (A) (A) (A) (A) (A) (A) (A) (A) (A) (A)
                 (A) (A) (A) (A) (A) (A) (A) (A) (A) (A) (A) (A)
                 (A) (A) (A) (A) (A) (A) (A) (A) (A) (A) (A) (A)
                 (A) (A) (A) (A) (A) (A) (A) (A) (A) (A) (A) (A)
                 (A) (A) (A) (A) (A) (A) (A) (A) (A) (A) (A) (A)
                 (A) (A) (A) (A) (A) (A) (A) (A) (A) (A) (A) (A)
                 (A) (A) (A) (A) (A) (A) (A) (A) (A) (A) (A) (A)
                 (A) (A) (A) (A) (A) (A) (A) (A) (A) (A) (A) (A)
                 (A)
 The electronic state is 1-A.
 Alpha  occ. eigenvalues --  -11.20842  -0.94144  -0.54394  -0.54394  -0.54394
 Alpha virt. eigenvalues --    0.03078   0.05050   0.05050   0.05050   0.12391
 Alpha virt. eigenvalues --    0.12391   0.12391   0.14185   0.22284   0.22284
 Alpha virt. eigenvalues --    0.22787   0.22787   0.22787   0.32984   0.32984
 Alpha virt. eigenvalues --    0.32984   0.33659   0.35377   0.35377   0.35377
 Alpha virt. eigenvalues --    0.39209   0.39209   0.39209   0.40113   0.46217
 Alpha virt. eigenvalues --    0.46217   0.46217   0.50004   0.50004   0.67697
 Alpha virt. eigenvalues --    0.67697   0.67697   0.79417   0.83113   0.83113
 Alpha virt. eigenvalues --    0.83113   0.89232   0.89232   0.89232   0.96820
 Alpha virt. eigenvalues --    0.96820   0.96820   0.97111   0.97111   0.97959
 Alpha virt. eigenvalues --    1.06981   1.06981   1.06981   1.08529   1.08529
 Alpha virt. eigenvalues --    1.08529   1.11797   1.11797   1.21436   1.21436
 Alpha virt. eigenvalues --    1.21436   1.26269   1.26269   1.31601   1.58929
 Alpha virt. eigenvalues --    1.58929   1.58929   1.61736   1.61736   1.61736
 Alpha virt. eigenvalues --    1.63042   1.72882   1.72882   1.72882   1.86196
 Alpha virt. eigenvalues --    1.86196   1.86196   1.92685   1.92685   1.92685
 Alpha virt. eigenvalues --    2.11501   2.11501   2.11502   2.23785   2.23785
 Alpha virt. eigenvalues --    2.58148   2.91106   3.24960   3.24960   3.24960
 Alpha virt. eigenvalues --    3.49094   3.49094   3.57227   3.57227   3.57227
 Alpha virt. eigenvalues --    3.57314   3.57314   3.57314   3.90493   3.90493
 Alpha virt. eigenvalues --    3.90493   4.04981   4.04981   4.04981   4.06436
 Alpha virt. eigenvalues --    4.06436   4.06437   4.11601   4.11601   4.24737
 Alpha virt. eigenvalues --    4.56426   4.56426   4.56427   4.75446   4.75446
 Alpha virt. eigenvalues --    4.79351   4.79351   4.79351   4.85196   4.85196
 Alpha virt. eigenvalues --    4.85196   5.17857   5.17857   5.17857   5.29237
 Alpha virt. eigenvalues --    5.62822   5.62824   5.62824   5.79796   5.79797
 Alpha virt. eigenvalues --    5.81165   6.20910   6.20911   6.20911   6.60414
 Alpha virt. eigenvalues --    6.60414   6.60414  17.60984
          Condensed to atoms (all electrons):
               1          2          3          4          5
     1  C    5.624539   0.388501   0.388502   0.388502   0.388501
     2  H    0.388501   0.288830   0.009344   0.009344   0.009344
     3  H    0.388502   0.009344   0.288831   0.009344   0.009344
     4  H    0.388502   0.009344   0.009344   0.288831   0.009344
     5  H    0.388501   0.009344   0.009344   0.009344   0.288832
 Mulliken charges:
               1
     1  C   -1.178545
     2  H    0.294637
     3  H    0.294636
     4  H    0.294636
     5  H    0.294635
 Sum of Mulliken charges =  -0.00000
 Mulliken charges with hydrogens summed into heavy atoms:
               1
     1  C   -0.000000
 Electronic spatial extent (au):  <R**2>=             35.8380
 Charge=             -0.0000 electrons
 Dipole moment (field-independent basis, Debye):
    X=             -0.0000    Y=             -0.0000    Z=              0.0000  Tot=              0.0000
 Quadrupole moment (field-independent basis, Debye-Ang):
   XX=             -8.4281   YY=             -8.4281   ZZ=             -8.4281
   XY=              0.0000   XZ=             -0.0000   YZ=             -0.0000
 Traceless Quadrupole moment (field-independent basis, Debye-Ang):
   XX=              0.0000   YY=             -0.0000   ZZ=             -0.0000
   XY=              0.0000   XZ=             -0.0000   YZ=             -0.0000
 Octapole moment (field-independent basis, Debye-Ang**2):
  XXX=              0.8208  YYY=              0.5715  ZZZ=              0.1014  XYY=             -0.4104
  XXY=             -0.0000  XXZ=              0.0000  XZZ=             -0.4104  YZZ=             -0.5715
  YYZ=             -0.1014  XYZ=             -0.0000
 Hexadecapole moment (field-independent basis, Debye-Ang**3):
 XXXX=            -15.6386 YYYY=            -15.9250 ZZZZ=            -15.9249 XXXY=              0.0000
 XXXZ=             -0.0000 YYYX=             -0.3987 YYYZ=              0.0000 ZZZX=             -0.0707
 ZZZY=             -0.0000 XXYY=             -5.5947 XXZZ=             -5.5946 YYZZ=             -5.3083
 XXYZ=              0.0000 YYXZ=              0.0707 ZZXY=              0.3987
 N-N= 1.340833642245D+01 E-N=-1.198161346743D+02  KE= 4.013594726135D+01
 Calling FoFJK, ICntrl=  10002127 FMM=F ISym2X=0 I1Cent= 0 IOpClX= 0 NMat=1 NMatS=1 NMatT=0.
 ***** Axes restored to original set *****
 -------------------------------------------------------------------
 Center     Atomic                   Forces (Hartrees/Bohr)
 Number     Number              X              Y              Z
 -------------------------------------------------------------------
      1        6          -0.000000355   -0.000000551    0.000000945
      2        1          -0.002472027    0.000000008   -0.000000014
      3        1           0.000823983    0.000911217    0.002143349
      4        1           0.000824032   -0.002312062   -0.000282086
      5        1           0.000824368    0.001401388   -0.001862195
 -------------------------------------------------------------------
 Cartesian Forces:  Max     0.002472027 RMS     0.001276182

 GradGradGradGradGradGradGradGradGradGradGradGradGradGradGradGradGradGrad
 Berny optimization.
 FormGI is forming the generalized inverse of G from B-inverse, IUseBI=4.
 Internal  Forces:  Max     0.002472092 RMS     0.001320974
 Search for a local minimum.
 Step number   1 out of a maximum of   24
 All quantities printed in internal units (Hartrees-Bohrs-Radians)
 Mixed Optimization -- RFO/linear search
 Second derivative matrix not updated -- first step.
 The second derivative matrix:
                          R1        R2        R3        R4        A1
           R1           0.34560
           R2           0.00000   0.34560
           R3           0.00000   0.00000   0.34560
           R4           0.00000   0.00000   0.00000   0.34560
           A1           0.00000   0.00000   0.00000   0.00000   0.16000
           A2           0.00000   0.00000   0.00000   0.00000   0.00000
           A3           0.00000   0.00000   0.00000   0.00000   0.00000
           A4           0.00000   0.00000   0.00000   0.00000   0.00000
           A5           0.00000   0.00000   0.00000   0.00000   0.00000
           A6           0.00000   0.00000   0.00000   0.00000   0.00000
           D1           0.00000   0.00000   0.00000   0.00000   0.00000
           D2           0.00000   0.00000   0.00000   0.00000   0.00000
           D3           0.00000   0.00000   0.00000   0.00000   0.00000
           D4           0.00000   0.00000   0.00000   0.00000   0.00000
                          A2        A3        A4        A5        A6
           A2           0.16000
           A3           0.00000   0.16000
           A4           0.00000   0.00000   0.16000
           A5           0.00000   0.00000   0.00000   0.16000
           A6           0.00000   0.00000   0.00000   0.00000   0.16000
           D1           0.00000   0.00000   0.00000   0.00000   0.00000
           D2           0.00000   0.00000   0.00000   0.00000   0.00000
           D3           0.00000   0.00000   0.00000   0.00000   0.00000
           D4           0.00000   0.00000   0.00000   0.00000   0.00000
                          D1        D2        D3        D4
           D1           0.00230
           D2           0.00000   0.00230
           D3           0.00000   0.00000   0.00230
           D4           0.00000   0.00000   0.00000   0.00230
 ITU=  0
     Eigenvalues ---    0.05082   0.05715   0.08641   0.16000   0.16000
     Eigenvalues ---    0.34560   0.34560   0.34560   0.34560
 RFO step:  Lambda=-7.06736200D-05 EMin= 5.08231197D-02
 Linear search not attempted -- first point.
 Iteration  1 RMS(Cart)=  0.00382151 RMS(Int)=  0.00000001
 Iteration  2 RMS(Cart)=  0.00000001 RMS(Int)=  0.00000000
 Variable       Old X    -DE/DX   Delta X   Delta X   Delta X     New X
                                 (Linear)    (Quad)   (Total)
    R1        2.06396  -0.00247   0.00000  -0.00715  -0.00715   2.05681
    R2        2.06396  -0.00247   0.00000  -0.00715  -0.00715   2.05681
    R3        2.06396  -0.00247   0.00000  -0.00715  -0.00715   2.05681
    R4        2.06396  -0.00247   0.00000  -0.00715  -0.00715   2.05681
    A1        1.91064  -0.00000   0.00000  -0.00000  -0.00000   1.91063
    A2        1.91064  -0.00000   0.00000  -0.00000  -0.00000   1.91063
    A3        1.91064  -0.00000   0.00000  -0.00000  -0.00000   1.91063
    A4        1.91063   0.00000   0.00000   0.00001   0.00001   1.91063
    A5        1.91063   0.00000   0.00000   0.00000   0.00000   1.91063
    A6        1.91063   0.00000   0.00000   0.00000   0.00000   1.91063
    D1        2.09440  -0.00000   0.00000  -0.00000  -0.00000   2.09440
    D2       -2.09440   0.00000   0.00000   0.00000   0.00000  -2.09440
    D3        2.09440  -0.00000   0.00000  -0.00000  -0.00000   2.09440
    D4       -2.09438  -0.00000   0.00000  -0.00001  -0.00001  -2.09439
         Item               Value     Threshold  Converged?
 Maximum Force            0.002472     0.000450     NO 
 RMS     Force            0.001321     0.000300     NO 
 Maximum Displacement     0.007154     0.001800     NO 
 RMS     Displacement     0.003822     0.001200     NO 
 Predicted change in Energy=-3.534404D-05
 GradGradGradGradGradGradGradGradGradGradGradGradGradGradGradGradGradGrad

                          Input orientation:                          
 ---------------------------------------------------------------------
 Center     Atomic      Atomic             Coordinates (Angstroms)
 Number     Number       Type             X           Y           Z
 ---------------------------------------------------------------------
      1          6           0       -0.342251   -0.183470   -0.721980
      2          1           0        0.746164   -0.183470   -0.721980
      3          1           0       -0.705058   -0.585046   -1.666309
      4          1           0       -0.705058    0.835131   -0.597591
      5          1           0       -0.705057   -0.800495    0.097960
 ---------------------------------------------------------------------
                    Distance matrix (angstroms):
                    1          2          3          4          5
     1  C    0.000000
     2  H    1.088416   0.000000
     3  H    1.088416   1.777376   0.000000
     4  H    1.088416   1.777376   1.777375   0.000000
     5  H    1.088416   1.777376   1.777375   1.777375   0.000000
 Stoichiometry    CH4
 Framework group  C1[X(CH4)]
 Deg. of freedom     9
 Full point group                 C1      NOp   1
 Largest Abelian subgroup         C1      NOp   1
 Largest concise Abelian subgroup C1      NOp   1
                         Standard orientation:                         
 ---------------------------------------------------------------------
 Center     Atomic      Atomic             Coordinates (Angstroms)
 Number     Number       Type             X           Y           Z
 ---------------------------------------------------------------------
      1          6           0        0.000000   -0.000000    0.000000
      2          1           0        1.032996   -0.315832    0.133490
      3          1           0       -0.534124   -0.097985    0.943271
      4          1           0       -0.476072   -0.625125   -0.753142
      5          1           0       -0.022800    1.038942   -0.323618
 ---------------------------------------------------------------------
 Rotational constants (GHZ):         158.7353827         158.7352888         158.7352832
 Standard basis: Aug-CC-pVTZ (5D, 7F)
 There are   155 symmetry adapted cartesian basis functions of A   symmetry.
 There are   138 symmetry adapted basis functions of A   symmetry.
   138 basis functions,   180 primitive gaussians,   155 cartesian basis functions
     5 alpha electrons        5 beta electrons
       nuclear repulsion energy        13.4549433262 Hartrees.
 NAtoms=    5 NActive=    5 NUniq=    5 SFac= 1.00D+00 NAtFMM=   60 NAOKFM=F Big=F
 Integral buffers will be    131072 words long.
 Raffenetti 1 integral format.
 Two-electron integral symmetry is turned on.
 One-electron integrals computed using PRISM.
 NBasis=   138 RedAO= T EigKep=  8.27D-05  NBF=   138
 NBsUse=   138 1.00D-06 EigRej= -1.00D+00 NBFU=   138
 Initial guess from the checkpoint file:  "methane_in.chk"
 B after Tr=     0.000000    0.000000   -0.000000
         Rot=    0.980236    0.116952    0.044270    0.153295 Ang=  22.82 deg.
 Keep R1 ints in memory in canonical form, NReq=51904770.
 Requested convergence on RMS density matrix=1.00D-08 within 128 cycles.
 Requested convergence on MAX density matrix=1.00D-06.
 Requested convergence on             energy=1.00D-06.
 No special actions if energy rises.
 SCF Done:  E(RHF) =  -40.2135957220     A.U. after    6 cycles
            NFock=  6  Conv=0.51D-08     -V/T= 2.0014
 ExpMin= 2.53D-02 ExpMax= 8.24D+03 ExpMxC= 2.81D+02 IAcc=3 IRadAn=         5 AccDes= 0.00D+00
 HarFok:  IExCor=  205 AccDes= 0.00D+00 IRadAn=         5 IDoV=-2 UseB2=F ITyADJ=14
 ICtDFT= 12500011 ScaDFX=  1.000000  1.000000  1.000000  1.000000
 Range of M.O.s used for correlation:     2   138
 NBasis=   138 NAE=     5 NBE=     5 NFC=     1 NFV=     0
 NROrb=    137 NOA=     4 NOB=     4 NVA=   133 NVB=   133

 **** Warning!!: The largest alpha MO coefficient is  0.57890011D+02

 Semi-Direct transformation.
 ModeAB=           2 MOrb=             4 LenV=    5099633598
 LASXX=      5008801 LTotXX=     5008801 LenRXX=     5008801
 LTotAB=     5118206 MaxLAS=     6625320 LenRXY=     6625320
 NonZer=    10017602 LenScr=    15728540 LnRSAI=           0
 LnScr1=           0 LExtra=           0 Total=     27362661
 MaxDsk=          -1 SrtSym=           F ITran=            4
 JobTyp=0 Pass  1:  I=   1 to   4.
 (rs|ai) integrals will be sorted in core.
 SymMOI:  orbitals are not symmetric.
 Spin components of T(2) and E(2):
     alpha-alpha T2 =       0.6182921434D-02 E2=     -0.1831153230D-01
     alpha-beta  T2 =       0.4940688239D-01 E2=     -0.1642275813D+00
     beta-beta   T2 =       0.6182921434D-02 E2=     -0.1831153230D-01
 ANorm=    0.1030423566D+01
 E2 =    -0.2008506459D+00 EUMP2 =    -0.40414446367932D+02
 Keep R2 and R3 ints in memory in canonical form, NReq=97907458.
 CIDS: In Core Option IDoMem=           1.
 Iterations=  50 Convergence= 0.100D-07
 Produce multiple copies of IABC intergrals
 Iteration Nr.   1
 **********************
 DD1Dir will call FoFMem   1 times, MxPair=        20
 NAB=    10 NAA=     0 NBB=     0.
 MP4(R+Q)=  0.40498184D-02
 E3=       -0.18112260D-01        EUMP3=      -0.40432558628D+02
 E4(DQ)=   -0.83074234D-03        UMP4(DQ)=   -0.40433389370D+02
 E4(SDQ)=  -0.18065190D-02        UMP4(SDQ)=  -0.40434365147D+02
 DE(Corr)= -0.21483338     E(Corr)=     -40.428429102    
 NORM(A)=   0.10365690D+01
 Iteration Nr.   2
 **********************
 DD1Dir will call FoFMem   1 times, MxPair=        20
 NAB=    10 NAA=     0 NBB=     0.
 DE(Corr)= -0.21957784     E(CORR)=     -40.433173563     Delta=-4.74D-03
 NORM(A)=   0.10387975D+01
 Iteration Nr.   3
 **********************
 DD1Dir will call FoFMem   1 times, MxPair=        20
 NAB=    10 NAA=     0 NBB=     0.
 DE(Corr)= -0.22048050     E(CORR)=     -40.434076217     Delta=-9.03D-04
 NORM(A)=   0.10391697D+01
 Iteration Nr.   4
 **********************
 DD1Dir will call FoFMem   1 times, MxPair=        20
 NAB=    10 NAA=     0 NBB=     0.
 DE(Corr)= -0.22075909     E(CORR)=     -40.434354812     Delta=-2.79D-04
 NORM(A)=   0.10392280D+01
 Iteration Nr.   5
 **********************
 DD1Dir will call FoFMem   1 times, MxPair=        20
 NAB=    10 NAA=     0 NBB=     0.
 DE(Corr)= -0.22077816     E(CORR)=     -40.434373879     Delta=-1.91D-05
 NORM(A)=   0.10392304D+01
 Iteration Nr.   6
 **********************
 DD1Dir will call FoFMem   1 times, MxPair=        20
 NAB=    10 NAA=     0 NBB=     0.
 DE(Corr)= -0.22077886     E(CORR)=     -40.434374584     Delta=-7.05D-07
 NORM(A)=   0.10392296D+01
 Iteration Nr.   7
 **********************
 DD1Dir will call FoFMem   1 times, MxPair=        20
 NAB=    10 NAA=     0 NBB=     0.
 DE(Corr)= -0.22077873     E(CORR)=     -40.434374450     Delta= 1.34D-07
 NORM(A)=   0.10392297D+01
 Iteration Nr.   8
 **********************
 DD1Dir will call FoFMem   1 times, MxPair=        20
 NAB=    10 NAA=     0 NBB=     0.
 DE(Corr)= -0.22077867     E(CORR)=     -40.434374390     Delta= 6.08D-08
 NORM(A)=   0.10392297D+01
 Iteration Nr.   9
 **********************
 DD1Dir will call FoFMem   1 times, MxPair=        20
 NAB=    10 NAA=     0 NBB=     0.
 DE(Corr)= -0.22077874     E(CORR)=     -40.434374467     Delta=-7.71D-08
 NORM(A)=   0.10392298D+01
 Iteration Nr.  10
 **********************
 DD1Dir will call FoFMem   1 times, MxPair=        20
 NAB=    10 NAA=     0 NBB=     0.
 DE(Corr)= -0.22077876     E(CORR)=     -40.434374483     Delta=-1.63D-08
 NORM(A)=   0.10392298D+01
 Iteration Nr.  11
 **********************
 DD1Dir will call FoFMem   1 times, MxPair=        20
 NAB=    10 NAA=     0 NBB=     0.
 DE(Corr)= -0.22077877     E(CORR)=     -40.434374493     Delta=-1.01D-08
 NORM(A)=   0.10392298D+01
 Iteration Nr.  12
 **********************
 DD1Dir will call FoFMem   1 times, MxPair=        20
 NAB=    10 NAA=     0 NBB=     0.
 DE(Corr)= -0.22077877     E(CORR)=     -40.434374496     Delta=-3.15D-09
 NORM(A)=   0.10392298D+01
 Wavefunction amplitudes converged. E(Corr)=     -40.434374496    
 Largest amplitude= 2.02D-02

 Z-amplitude iterations

 Iteration Nr.   1
 **********************
 DD1Dir will call FoFMem   1 times, MxPair=        20
 NAB=    10 NAA=     0 NBB=     0.
 DE(Z)= -0.21536460     E(Z)=     -40.428960324     Delta= 5.41D-03
 NORM(A)=   0.10392304D+01
 Iteration Nr.   2
 **********************
 DD1Dir will call FoFMem   1 times, MxPair=        20
 NAB=    10 NAA=     0 NBB=     0.
 DE(Z)= -0.21536479     E(Z)=     -40.428960507     Delta=-1.83D-07
 NORM(A)=   0.10392284D+01
 Iteration Nr.   3
 **********************
 DD1Dir will call FoFMem   1 times, MxPair=        20
 NAB=    10 NAA=     0 NBB=     0.
 DE(Z)= -0.21536418     E(Z)=     -40.428959901     Delta= 6.06D-07
 NORM(A)=   0.10392314D+01
 Iteration Nr.   4
 **********************
 DD1Dir will call FoFMem   1 times, MxPair=        20
 NAB=    10 NAA=     0 NBB=     0.
 DE(Z)= -0.21536510     E(Z)=     -40.428960826     Delta=-9.26D-07
 NORM(A)=   0.10392319D+01
 Iteration Nr.   5
 **********************
 DD1Dir will call FoFMem   1 times, MxPair=        20
 NAB=    10 NAA=     0 NBB=     0.
 DE(Z)= -0.21536524     E(Z)=     -40.428960966     Delta=-1.40D-07
 NORM(A)=   0.10369106D+01
 Iteration Nr.   6
 **********************
 DD1Dir will call FoFMem   1 times, MxPair=        20
 NAB=    10 NAA=     0 NBB=     0.
 DE(Z)= -0.21461392     E(Z)=     -40.428209640     Delta= 7.51D-04
 NORM(A)=   0.10369093D+01
 Iteration Nr.   7
 **********************
 DD1Dir will call FoFMem   1 times, MxPair=        20
 NAB=    10 NAA=     0 NBB=     0.
 DE(Z)= -0.21461374     E(Z)=     -40.428209465     Delta= 1.76D-07
 NORM(A)=   0.10369094D+01
 Iteration Nr.   8
 **********************
 DD1Dir will call FoFMem   1 times, MxPair=        20
 NAB=    10 NAA=     0 NBB=     0.
 DE(Z)= -0.21461373     E(Z)=     -40.428209456     Delta= 9.21D-09
 NORM(A)=   0.10369093D+01
 Z-amplitudes converged.
 Discarding MO integrals.
          IDoAtm=11111
          Differentiating once with respect to electric field.
                with respect to dipole field.
          Differentiating once with respect to nuclear coordinates.
 Keep R1 ints in memory in canonical form, NReq=51905767.
          There are     1 degrees of freedom in the 1st order CPHF.  IDoFFX=0 NUNeed=     1.
 LinEq1:  Iter=  0 NonCon=     1 RMS=2.10D-03 Max=1.45D-02 NDo=     1
 AX will form     1 AO Fock derivatives at one time.
 LinEq1:  Iter=  1 NonCon=     1 RMS=7.79D-04 Max=6.34D-03 NDo=     1
 LinEq1:  Iter=  2 NonCon=     1 RMS=1.09D-04 Max=7.48D-04 NDo=     1
 LinEq1:  Iter=  3 NonCon=     1 RMS=7.13D-06 Max=5.32D-05 NDo=     1
 LinEq1:  Iter=  4 NonCon=     1 RMS=5.11D-07 Max=3.53D-06 NDo=     1
 LinEq1:  Iter=  5 NonCon=     1 RMS=3.47D-08 Max=2.14D-07 NDo=     1
 LinEq1:  Iter=  6 NonCon=     1 RMS=2.25D-09 Max=1.67D-08 NDo=     1
 LinEq1:  Iter=  7 NonCon=     1 RMS=1.86D-10 Max=1.91D-09 NDo=     1
 LinEq1:  Iter=  8 NonCon=     0 RMS=1.15D-11 Max=1.12D-10 NDo=     1
 Linear equations converged to 1.000D-10 1.000D-09 after     8 iterations.
 End of Minotr F.D. properties file   721 does not exist.
 End of Minotr F.D. properties file   722 does not exist.
 End of Minotr F.D. properties file   788 does not exist.
 Calling FoFJK, ICntrl=  10002127 FMM=F ISym2X=0 I1Cent= 0 IOpClX= 0 NMat=1 NMatS=1 NMatT=0.
 ***** Axes restored to original set *****
 -------------------------------------------------------------------
 Center     Atomic                   Forces (Hartrees/Bohr)
 Number     Number              X              Y              Z
 -------------------------------------------------------------------
      1        6          -0.000000445    0.000000012   -0.000000018
      2        1           0.000031820    0.000000018   -0.000000033
      3        1          -0.000010434   -0.000011683   -0.000027438
      4        1          -0.000010443    0.000029604    0.000003631
      5        1          -0.000010499   -0.000017951    0.000023857
 -------------------------------------------------------------------
 Cartesian Forces:  Max     0.000031820 RMS     0.000016353

 GradGradGradGradGradGradGradGradGradGradGradGradGradGradGradGradGradGrad
 Berny optimization.
 Using GEDIIS/GDIIS optimizer.
 FormGI is forming the generalized inverse of G from B-inverse, IUseBI=4.
 Internal  Forces:  Max     0.000031820 RMS     0.000016926
 Search for a local minimum.
 Step number   2 out of a maximum of   24
 All quantities printed in internal units (Hartrees-Bohrs-Radians)
 Mixed Optimization -- En-DIIS/RFO-DIIS
 Update second derivatives using D2CorX and points    1    2
 DE= -3.50D-05 DEPred=-3.53D-05 R= 9.91D-01
 TightC=F SS=  1.41D+00  RLast= 1.43D-02 DXNew= 5.0454D-01 4.2896D-02
 Trust test= 9.91D-01 RLast= 1.43D-02 DXMaxT set to 3.00D-01
 The second derivative matrix:
                          R1        R2        R3        R4        A1
           R1           0.34673
           R2           0.00113   0.34672
           R3           0.00113   0.00112   0.34672
           R4           0.00113   0.00112   0.00112   0.34672
           A1          -0.00001  -0.00001  -0.00001  -0.00001   0.16000
           A2          -0.00001  -0.00001  -0.00001  -0.00001  -0.00000
           A3          -0.00001  -0.00001  -0.00001  -0.00001  -0.00000
           A4           0.00002   0.00002   0.00002   0.00002   0.00000
           A5           0.00001   0.00001   0.00001   0.00001   0.00000
           A6           0.00001   0.00001   0.00001   0.00001   0.00000
           D1           0.00000   0.00000   0.00000   0.00000   0.00000
           D2          -0.00001  -0.00001  -0.00001  -0.00001  -0.00000
           D3           0.00001   0.00001   0.00001   0.00001   0.00000
           D4           0.00001   0.00001   0.00001   0.00001   0.00000
                          A2        A3        A4        A5        A6
           A2           0.16000
           A3          -0.00000   0.16000
           A4           0.00000   0.00000   0.16000
           A5           0.00000   0.00000  -0.00000   0.16000
           A6           0.00000   0.00000  -0.00000  -0.00000   0.16000
           D1           0.00000   0.00000  -0.00000  -0.00000  -0.00000
           D2          -0.00000  -0.00000   0.00000   0.00000   0.00000
           D3           0.00000   0.00000  -0.00000  -0.00000  -0.00000
           D4           0.00000   0.00000  -0.00000  -0.00000  -0.00000
                          D1        D2        D3        D4
           D1           0.00230
           D2          -0.00000   0.00230
           D3           0.00000  -0.00000   0.00230
           D4           0.00000  -0.00000   0.00000   0.00230
 ITU=  1  0
 Use linear search instead of GDIIS.
     Eigenvalues ---    0.05082   0.05715   0.08641   0.16000   0.16000
     Eigenvalues ---    0.34560   0.34560   0.34560   0.35010
 RFO step:  Lambda= 0.00000000D+00 EMin= 5.08230993D-02
 Quartic linear search produced a step of -0.01252.
 Iteration  1 RMS(Cart)=  0.00004785 RMS(Int)=  0.00000000
 Iteration  2 RMS(Cart)=  0.00000000 RMS(Int)=  0.00000000
 Variable       Old X    -DE/DX   Delta X   Delta X   Delta X     New X
                                 (Linear)    (Quad)   (Total)
    R1        2.05681   0.00003   0.00009   0.00000   0.00009   2.05690
    R2        2.05681   0.00003   0.00009  -0.00000   0.00009   2.05690
    R3        2.05681   0.00003   0.00009  -0.00000   0.00009   2.05690
    R4        2.05681   0.00003   0.00009  -0.00000   0.00009   2.05690
    A1        1.91063  -0.00000   0.00000  -0.00000  -0.00000   1.91063
    A2        1.91063  -0.00000   0.00000  -0.00000  -0.00000   1.91063
    A3        1.91063  -0.00000   0.00000  -0.00000  -0.00000   1.91063
    A4        1.91063   0.00000  -0.00000   0.00000   0.00000   1.91063
    A5        1.91063   0.00000  -0.00000   0.00000   0.00000   1.91063
    A6        1.91063   0.00000  -0.00000   0.00000   0.00000   1.91063
    D1        2.09440  -0.00000   0.00000  -0.00000  -0.00000   2.09440
    D2       -2.09440   0.00000  -0.00000   0.00000   0.00000  -2.09440
    D3        2.09440  -0.00000   0.00000  -0.00000  -0.00000   2.09440
    D4       -2.09439  -0.00000   0.00000  -0.00000  -0.00000  -2.09439
         Item               Value     Threshold  Converged?
 Maximum Force            0.000032     0.000450     YES
 RMS     Force            0.000017     0.000300     YES
 Maximum Displacement     0.000089     0.001800     YES
 RMS     Displacement     0.000048     0.001200     YES
 Predicted change in Energy=-5.727899D-09
 Optimization completed.
    -- Stationary point found.
                           ----------------------------
                           !   Optimized Parameters   !
                           ! (Angstroms and Degrees)  !
 --------------------------                            --------------------------
 ! Name  Definition              Value          Derivative Info.                !
 --------------------------------------------------------------------------------
 ! R1    R(1,2)                  1.0884         -DE/DX =    0.0                 !
 ! R2    R(1,3)                  1.0884         -DE/DX =    0.0                 !
 ! R3    R(1,4)                  1.0884         -DE/DX =    0.0                 !
 ! R4    R(1,5)                  1.0884         -DE/DX =    0.0                 !
 ! A1    A(2,1,3)              109.4713         -DE/DX =    0.0                 !
 ! A2    A(2,1,4)              109.4713         -DE/DX =    0.0                 !
 ! A3    A(2,1,5)              109.4712         -DE/DX =    0.0                 !
 ! A4    A(3,1,4)              109.4712         -DE/DX =    0.0                 !
 ! A5    A(3,1,5)              109.4712         -DE/DX =    0.0                 !
 ! A6    A(4,1,5)              109.4712         -DE/DX =    0.0                 !
 ! D1    D(2,1,4,3)            120.0001         -DE/DX =    0.0                 !
 ! D2    D(2,1,5,3)           -120.0001         -DE/DX =    0.0                 !
 ! D3    D(2,1,5,4)            120.0001         -DE/DX =    0.0                 !
 ! D4    D(3,1,5,4)           -119.9999         -DE/DX =    0.0                 !
 --------------------------------------------------------------------------------
 GradGradGradGradGradGradGradGradGradGradGradGradGradGradGradGradGradGrad

                          Input orientation:                          
 ---------------------------------------------------------------------
 Center     Atomic      Atomic             Coordinates (Angstroms)
 Number     Number       Type             X           Y           Z
 ---------------------------------------------------------------------
      1          6           0       -0.342251   -0.183470   -0.721980
      2          1           0        0.746164   -0.183470   -0.721980
      3          1           0       -0.705058   -0.585046   -1.666309
      4          1           0       -0.705058    0.835131   -0.597591
      5          1           0       -0.705057   -0.800495    0.097960
 ---------------------------------------------------------------------
                    Distance matrix (angstroms):
                    1          2          3          4          5
     1  C    0.000000
     2  H    1.088416   0.000000
     3  H    1.088416   1.777376   0.000000
     4  H    1.088416   1.777376   1.777375   0.000000
     5  H    1.088416   1.777376   1.777375   1.777375   0.000000
 Stoichiometry    CH4
 Framework group  C1[X(CH4)]
 Deg. of freedom     9
 Full point group                 C1      NOp   1
 Largest Abelian subgroup         C1      NOp   1
 Largest concise Abelian subgroup C1      NOp   1
                         Standard orientation:                         
 ---------------------------------------------------------------------
 Center     Atomic      Atomic             Coordinates (Angstroms)
 Number     Number       Type             X           Y           Z
 ---------------------------------------------------------------------
      1          6           0        0.000000   -0.000000    0.000000
      2          1           0        1.032996   -0.315832    0.133490
      3          1           0       -0.534124   -0.097985    0.943271
      4          1           0       -0.476072   -0.625125   -0.753143
      5          1           0       -0.022800    1.038942   -0.323618
 ---------------------------------------------------------------------
 Rotational constants (GHZ):         158.7353827         158.7352888         158.7352832

 **********************************************************************

            Population analysis using the SCF density.

 **********************************************************************

 Orbital symmetries:
       Occupied  (A) (A) (A) (A) (A)
       Virtual   (A) (A) (A) (A) (A) (A) (A) (A) (A) (A) (A) (A)
                 (A) (A) (A) (A) (A) (A) (A) (A) (A) (A) (A) (A)
                 (A) (A) (A) (A) (A) (A) (A) (A) (A) (A) (A) (A)
                 (A) (A) (A) (A) (A) (A) (A) (A) (A) (A) (A) (A)
                 (A) (A) (A) (A) (A) (A) (A) (A) (A) (A) (A) (A)
                 (A) (A) (A) (A) (A) (A) (A) (A) (A) (A) (A) (A)
                 (A) (A) (A) (A) (A) (A) (A) (A) (A) (A) (A) (A)
                 (A) (A) (A) (A) (A) (A) (A) (A) (A) (A) (A) (A)
                 (A) (A) (A) (A) (A) (A) (A) (A) (A) (A) (A) (A)
                 (A) (A) (A) (A) (A) (A) (A) (A) (A) (A) (A) (A)
                 (A) (A) (A) (A) (A) (A) (A) (A) (A) (A) (A) (A)
                 (A)
 The electronic state is 1-A.
 Alpha  occ. eigenvalues --  -11.20652  -0.94301  -0.54491  -0.54491  -0.54491
 Alpha virt. eigenvalues --    0.03080   0.05047   0.05047   0.05047   0.12395
 Alpha virt. eigenvalues --    0.12395   0.12395   0.14190   0.22299   0.22299
 Alpha virt. eigenvalues --    0.22819   0.22819   0.22819   0.32989   0.32989
 Alpha virt. eigenvalues --    0.32989   0.33710   0.35397   0.35397   0.35397
 Alpha virt. eigenvalues --    0.39209   0.39209   0.39209   0.40137   0.46280
 Alpha virt. eigenvalues --    0.46280   0.46280   0.50044   0.50044   0.67785
 Alpha virt. eigenvalues --    0.67785   0.67785   0.79571   0.83171   0.83171
 Alpha virt. eigenvalues --    0.83171   0.89303   0.89303   0.89303   0.96873
 Alpha virt. eigenvalues --    0.96873   0.96873   0.96967   0.96967   0.98044
 Alpha virt. eigenvalues --    1.07027   1.07027   1.07027   1.08637   1.08637
 Alpha virt. eigenvalues --    1.08637   1.11903   1.11903   1.21492   1.21492
 Alpha virt. eigenvalues --    1.21492   1.26477   1.26477   1.31518   1.58995
 Alpha virt. eigenvalues --    1.58995   1.58995   1.61940   1.61940   1.61940
 Alpha virt. eigenvalues --    1.62869   1.73067   1.73067   1.73067   1.86506
 Alpha virt. eigenvalues --    1.86506   1.86506   1.92813   1.92813   1.92813
 Alpha virt. eigenvalues --    2.11686   2.11686   2.11686   2.24093   2.24093
 Alpha virt. eigenvalues --    2.58608   2.90847   3.25000   3.25000   3.25000
 Alpha virt. eigenvalues --    3.48862   3.48862   3.57343   3.57343   3.57343
 Alpha virt. eigenvalues --    3.57698   3.57698   3.57698   3.90918   3.90918
 Alpha virt. eigenvalues --    3.90918   4.05336   4.05336   4.05336   4.06900
 Alpha virt. eigenvalues --    4.06900   4.06900   4.11739   4.11739   4.25947
 Alpha virt. eigenvalues --    4.57347   4.57347   4.57347   4.75921   4.75921
 Alpha virt. eigenvalues --    4.80037   4.80037   4.80037   4.85771   4.85771
 Alpha virt. eigenvalues --    4.85771   5.18996   5.18996   5.18996   5.30472
 Alpha virt. eigenvalues --    5.63759   5.63759   5.63759   5.81661   5.81661
 Alpha virt. eigenvalues --    5.82200   6.22678   6.22678   6.22678   6.60579
 Alpha virt. eigenvalues --    6.60579   6.60579  17.69013
          Condensed to atoms (all electrons):
               1          2          3          4          5
     1  C    5.631556   0.388356   0.388356   0.388356   0.388356
     2  H    0.388356   0.287287   0.009371   0.009371   0.009371
     3  H    0.388356   0.009371   0.287288   0.009371   0.009371
     4  H    0.388356   0.009371   0.009371   0.287288   0.009371
     5  H    0.388356   0.009371   0.009371   0.009371   0.287288
 Mulliken charges:
               1
     1  C   -1.184978
     2  H    0.296245
     3  H    0.296244
     4  H    0.296244
     5  H    0.296244
 Sum of Mulliken charges =   0.00000
 Mulliken charges with hydrogens summed into heavy atoms:
               1
     1  C    0.000000
 Electronic spatial extent (au):  <R**2>=             35.6926
 Charge=              0.0000 electrons
 Dipole moment (field-independent basis, Debye):
    X=             -0.0000    Y=              0.0000    Z=             -0.0000  Tot=              0.0000
 Quadrupole moment (field-independent basis, Debye-Ang):
   XX=             -8.4158   YY=             -8.4158   ZZ=             -8.4158
   XY=             -0.0000   XZ=              0.0000   YZ=             -0.0000
 Traceless Quadrupole moment (field-independent basis, Debye-Ang):
   XX=              0.0000   YY=             -0.0000   ZZ=             -0.0000
   XY=             -0.0000   XZ=              0.0000   YZ=             -0.0000
 Octapole moment (field-independent basis, Debye-Ang**2):
  XXX=              0.5940  YYY=              0.5959  ZZZ=              0.2685  XYY=             -0.0795
  XXY=             -0.3570  XXZ=              0.1698  XZZ=             -0.5144  YZZ=             -0.2388
  YYZ=             -0.4382  XYZ=             -0.1486
 Hexadecapole moment (field-independent basis, Debye-Ang**3):
 XXXX=            -15.7995 YYYY=            -15.7229 ZZZZ=            -15.9986 XXXY=             -0.3607
 XXXZ=              0.1149 YYYX=              0.0796 YYYZ=             -0.2498 ZZZX=             -0.3280
 ZZZY=              0.2020 XXYY=             -5.5725 XXZZ=             -5.2968 YYZZ=             -5.3734
 XXYZ=              0.0477 YYXZ=              0.2131 ZZXY=              0.2810
 N-N= 1.345494332621D+01 E-N=-1.199260751443D+02  KE= 4.015750014396D+01
 1\1\GINC-MIDWAY3-0146\FOpt\RCCSD-FC\Aug-CC-pVTZ\C1H4\NDOHRMANN\03-May-
 2022\0\\#n CCSD/aug-cc-pVTZ Opt\\Title\\0,1\C,-0.3422514593,-0.1834699
 877,-0.7219800263\H,0.7461641453,-0.1834700995,-0.7219798246\H,-0.7050
 576729,-0.5850461851,-1.6663092395\H,-0.705057633,0.8351312187,-0.5975
 907338\H,-0.7050573802,-0.8004949463,0.0979598241\\Version=ES64L-G16Re
 vA.03\State=1-A\HF=-40.2135957\MP2=-40.4144464\MP3=-40.4325586\MP4D=-4
 0.4374392\MP4DQ=-40.4333894\MP4SDQ=-40.4343651\CCSD=-40.4343745\RMSD=5
 .132e-09\RMSF=1.635e-05\Dipole=-0.0000002,0.,0.\PG=C01 [X(C1H4)]\\@


 OPTIMIST - A PESSIMIST WHO LACKS EXPERIENCE
 Job cpu time:       0 days  1 hours 32 minutes  0.9 seconds.
 Elapsed time:       0 days  0 hours  6 minutes 19.8 seconds.
 File lengths (MBytes):  RWF=   7264 Int=      0 D2E=      0 Chk=      8 Scr=     32
 Normal termination of Gaussian 16 at Tue May  3 16:06:50 2022.
